|===============================================================================
|
|  DFTB+ development version (commit: 6d0cab6)
|
|  Copyright (C) 2006 - 2019  DFTB+ developers group
|
|===============================================================================
|
|  When publishing results obtained with DFTB+, please cite the following
|  reference:
|
|  * B. Aradi, B. Hourahine and T. Frauenheim,
|    DFTB+, a Sparse Matrix-Based Implementation of the DFTB Method,
|    J. Phys. Chem. A, 111 5678 (2007).  [doi: 10.1021/jp070186p]
|
|  You should also cite additional publications crediting the parametrization
|  data you use. Please consult the documentation of the SK-files for the
|  references.
|
|===============================================================================

Reading input file 'dftb_in.hsd'
Parser version: 8

--------------------------------------------------------------------------------
***  Converting input from version  5 to version  8 ...
WARNING!
-> Keyword converted to 'ShellResolvedSCC'.
Path: dftbplusinput/Hamiltonian/DFTB/OrbitalResolvedSCC
Line: 33-33 (File: dftb_in.hsd)

WARNING!
-> Keyword renamed to 'Solver'.
Path: dftbplusinput/Hamiltonian/DFTB/Eigensolver
Line: 35-35 (File: dftb_in.hsd)

***  Done.

Reading SK-files:
Done.


Processed input in HSD format written to 'dftb_pin.hsd'

Starting initialization...
--------------------------------------------------------------------------------
Chosen random seed:          1041489137
Mode:                        Static calculation
Self consistent charges:     Yes
SCC-tolerance:                 0.100000E-06
Max. scc iterations:                      1
Shell resolved Hubbard:      No
Spin polarisation:           No
Nr. of up electrons:           507.000000
Nr. of down electrons:         507.000000
Periodic boundaries:         Yes
Electronic solver:           Divide and Conquer
Mixer:                       Broyden mixer
Mixing parameter:                  0.051000
Maximal SCC-cycles:                       1
Nr. of chrg. vec. in memory:              0
Electronic temperature:        0.950045E-03 H      0.258520E-01 eV
Initial charges:             Read in from 'charges'
Included shells:            Zn:  s, p, d
                             O:  s, p
                             H:  s
                             C:  s, p
K-points and weights:           1:  0.000000  0.000000 -0.500000     0.009901
                                2:  0.000000  0.000000 -0.490000     0.009901
                                3:  0.000000  0.000000 -0.480000     0.009901
                                4:  0.000000  0.000000 -0.470000     0.009901
                                5:  0.000000  0.000000 -0.460000     0.009901
                                6:  0.000000  0.000000 -0.450000     0.009901
                                7:  0.000000  0.000000 -0.440000     0.009901
                                8:  0.000000  0.000000 -0.430000     0.009901
                                9:  0.000000  0.000000 -0.420000     0.009901
                               10:  0.000000  0.000000 -0.410000     0.009901
                               11:  0.000000  0.000000 -0.400000     0.009901
                               12:  0.000000  0.000000 -0.390000     0.009901
                               13:  0.000000  0.000000 -0.380000     0.009901
                               14:  0.000000  0.000000 -0.370000     0.009901
                               15:  0.000000  0.000000 -0.360000     0.009901
                               16:  0.000000  0.000000 -0.350000     0.009901
                               17:  0.000000  0.000000 -0.340000     0.009901
                               18:  0.000000  0.000000 -0.330000     0.009901
                               19:  0.000000  0.000000 -0.320000     0.009901
                               20:  0.000000  0.000000 -0.310000     0.009901
                               21:  0.000000  0.000000 -0.300000     0.009901
                               22:  0.000000  0.000000 -0.290000     0.009901
                               23:  0.000000  0.000000 -0.280000     0.009901
                               24:  0.000000  0.000000 -0.270000     0.009901
                               25:  0.000000  0.000000 -0.260000     0.009901
                               26:  0.000000  0.000000 -0.250000     0.009901
                               27:  0.000000  0.000000 -0.240000     0.009901
                               28:  0.000000  0.000000 -0.230000     0.009901
                               29:  0.000000  0.000000 -0.220000     0.009901
                               30:  0.000000  0.000000 -0.210000     0.009901
                               31:  0.000000  0.000000 -0.200000     0.009901
                               32:  0.000000  0.000000 -0.190000     0.009901
                               33:  0.000000  0.000000 -0.180000     0.009901
                               34:  0.000000  0.000000 -0.170000     0.009901
                               35:  0.000000  0.000000 -0.160000     0.009901
                               36:  0.000000  0.000000 -0.150000     0.009901
                               37:  0.000000  0.000000 -0.140000     0.009901
                               38:  0.000000  0.000000 -0.130000     0.009901
                               39:  0.000000  0.000000 -0.120000     0.009901
                               40:  0.000000  0.000000 -0.110000     0.009901
                               41:  0.000000  0.000000 -0.100000     0.009901
                               42:  0.000000  0.000000 -0.090000     0.009901
                               43:  0.000000  0.000000 -0.080000     0.009901
                               44:  0.000000  0.000000 -0.070000     0.009901
                               45:  0.000000  0.000000 -0.060000     0.009901
                               46:  0.000000  0.000000 -0.050000     0.009901
                               47:  0.000000  0.000000 -0.040000     0.009901
                               48:  0.000000  0.000000 -0.030000     0.009901
                               49:  0.000000  0.000000 -0.020000     0.009901
                               50:  0.000000  0.000000 -0.010000     0.009901
                               51:  0.000000  0.000000  0.000000     0.009901
                               52:  0.000000  0.000000  0.010000     0.009901
                               53:  0.000000  0.000000  0.020000     0.009901
                               54:  0.000000  0.000000  0.030000     0.009901
                               55:  0.000000  0.000000  0.040000     0.009901
                               56:  0.000000  0.000000  0.050000     0.009901
                               57:  0.000000  0.000000  0.060000     0.009901
                               58:  0.000000  0.000000  0.070000     0.009901
                               59:  0.000000  0.000000  0.080000     0.009901
                               60:  0.000000  0.000000  0.090000     0.009901
                               61:  0.000000  0.000000  0.100000     0.009901
                               62:  0.000000  0.000000  0.110000     0.009901
                               63:  0.000000  0.000000  0.120000     0.009901
                               64:  0.000000  0.000000  0.130000     0.009901
                               65:  0.000000  0.000000  0.140000     0.009901
                               66:  0.000000  0.000000  0.150000     0.009901
                               67:  0.000000  0.000000  0.160000     0.009901
                               68:  0.000000  0.000000  0.170000     0.009901
                               69:  0.000000  0.000000  0.180000     0.009901
                               70:  0.000000  0.000000  0.190000     0.009901
                               71:  0.000000  0.000000  0.200000     0.009901
                               72:  0.000000  0.000000  0.210000     0.009901
                               73:  0.000000  0.000000  0.220000     0.009901
                               74:  0.000000  0.000000  0.230000     0.009901
                               75:  0.000000  0.000000  0.240000     0.009901
                               76:  0.000000  0.000000  0.250000     0.009901
                               77:  0.000000  0.000000  0.260000     0.009901
                               78:  0.000000  0.000000  0.270000     0.009901
                               79:  0.000000  0.000000  0.280000     0.009901
                               80:  0.000000  0.000000  0.290000     0.009901
                               81:  0.000000  0.000000  0.300000     0.009901
                               82:  0.000000  0.000000  0.310000     0.009901
                               83:  0.000000  0.000000  0.320000     0.009901
                               84:  0.000000  0.000000  0.330000     0.009901
                               85:  0.000000  0.000000  0.340000     0.009901
                               86:  0.000000  0.000000  0.350000     0.009901
                               87:  0.000000  0.000000  0.360000     0.009901
                               88:  0.000000  0.000000  0.370000     0.009901
                               89:  0.000000  0.000000  0.380000     0.009901
                               90:  0.000000  0.000000  0.390000     0.009901
                               91:  0.000000  0.000000  0.400000     0.009901
                               92:  0.000000  0.000000  0.410000     0.009901
                               93:  0.000000  0.000000  0.420000     0.009901
                               94:  0.000000  0.000000  0.430000     0.009901
                               95:  0.000000  0.000000  0.440000     0.009901
                               96:  0.000000  0.000000  0.450000     0.009901
                               97:  0.000000  0.000000  0.460000     0.009901
                               98:  0.000000  0.000000  0.470000     0.009901
                               99:  0.000000  0.000000  0.480000     0.009901
                              100:  0.000000  0.000000  0.490000     0.009901
                              101:  0.000000  0.000000  0.500000     0.009901
 
K-points in absolute space:     1:  0.000000  0.000000 -0.048707
                                2:  0.000000  0.000000 -0.047733
                                3:  0.000000  0.000000 -0.046758
                                4:  0.000000  0.000000 -0.045784
                                5:  0.000000  0.000000 -0.044810
                                6:  0.000000  0.000000 -0.043836
                                7:  0.000000  0.000000 -0.042862
                                8:  0.000000  0.000000 -0.041888
                                9:  0.000000  0.000000 -0.040914
                               10:  0.000000  0.000000 -0.039940
                               11:  0.000000  0.000000 -0.038965
                               12:  0.000000  0.000000 -0.037991
                               13:  0.000000  0.000000 -0.037017
                               14:  0.000000  0.000000 -0.036043
                               15:  0.000000  0.000000 -0.035069
                               16:  0.000000  0.000000 -0.034095
                               17:  0.000000  0.000000 -0.033121
                               18:  0.000000  0.000000 -0.032146
                               19:  0.000000  0.000000 -0.031172
                               20:  0.000000  0.000000 -0.030198
                               21:  0.000000  0.000000 -0.029224
                               22:  0.000000  0.000000 -0.028250
                               23:  0.000000  0.000000 -0.027276
                               24:  0.000000  0.000000 -0.026302
                               25:  0.000000  0.000000 -0.025328
                               26:  0.000000  0.000000 -0.024353
                               27:  0.000000  0.000000 -0.023379
                               28:  0.000000  0.000000 -0.022405
                               29:  0.000000  0.000000 -0.021431
                               30:  0.000000  0.000000 -0.020457
                               31:  0.000000  0.000000 -0.019483
                               32:  0.000000  0.000000 -0.018509
                               33:  0.000000  0.000000 -0.017534
                               34:  0.000000  0.000000 -0.016560
                               35:  0.000000  0.000000 -0.015586
                               36:  0.000000  0.000000 -0.014612
                               37:  0.000000  0.000000 -0.013638
                               38:  0.000000  0.000000 -0.012664
                               39:  0.000000  0.000000 -0.011690
                               40:  0.000000  0.000000 -0.010715
                               41:  0.000000  0.000000 -0.009741
                               42:  0.000000  0.000000 -0.008767
                               43:  0.000000  0.000000 -0.007793
                               44:  0.000000  0.000000 -0.006819
                               45:  0.000000  0.000000 -0.005845
                               46:  0.000000  0.000000 -0.004871
                               47:  0.000000  0.000000 -0.003897
                               48:  0.000000  0.000000 -0.002922
                               49:  0.000000  0.000000 -0.001948
                               50:  0.000000  0.000000 -0.000974
                               51:  0.000000  0.000000  0.000000
                               52:  0.000000  0.000000  0.000974
                               53:  0.000000  0.000000  0.001948
                               54:  0.000000  0.000000  0.002922
                               55:  0.000000  0.000000  0.003897
                               56:  0.000000  0.000000  0.004871
                               57:  0.000000  0.000000  0.005845
                               58:  0.000000  0.000000  0.006819
                               59:  0.000000  0.000000  0.007793
                               60:  0.000000  0.000000  0.008767
                               61:  0.000000  0.000000  0.009741
                               62:  0.000000  0.000000  0.010715
                               63:  0.000000  0.000000  0.011690
                               64:  0.000000  0.000000  0.012664
                               65:  0.000000  0.000000  0.013638
                               66:  0.000000  0.000000  0.014612
                               67:  0.000000  0.000000  0.015586
                               68:  0.000000  0.000000  0.016560
                               69:  0.000000  0.000000  0.017534
                               70:  0.000000  0.000000  0.018509
                               71:  0.000000  0.000000  0.019483
                               72:  0.000000  0.000000  0.020457
                               73:  0.000000  0.000000  0.021431
                               74:  0.000000  0.000000  0.022405
                               75:  0.000000  0.000000  0.023379
                               76:  0.000000  0.000000  0.024353
                               77:  0.000000  0.000000  0.025328
                               78:  0.000000  0.000000  0.026302
                               79:  0.000000  0.000000  0.027276
                               80:  0.000000  0.000000  0.028250
                               81:  0.000000  0.000000  0.029224
                               82:  0.000000  0.000000  0.030198
                               83:  0.000000  0.000000  0.031172
                               84:  0.000000  0.000000  0.032146
                               85:  0.000000  0.000000  0.033121
                               86:  0.000000  0.000000  0.034095
                               87:  0.000000  0.000000  0.035069
                               88:  0.000000  0.000000  0.036043
                               89:  0.000000  0.000000  0.037017
                               90:  0.000000  0.000000  0.037991
                               91:  0.000000  0.000000  0.038965
                               92:  0.000000  0.000000  0.039940
                               93:  0.000000  0.000000  0.040914
                               94:  0.000000  0.000000  0.041888
                               95:  0.000000  0.000000  0.042862
                               96:  0.000000  0.000000  0.043836
                               97:  0.000000  0.000000  0.044810
                               98:  0.000000  0.000000  0.045784
                               99:  0.000000  0.000000  0.046758
                              100:  0.000000  0.000000  0.047733
                              101:  0.000000  0.000000  0.048707
 
Extra options:
                             Mulliken analysis

--------------------------------------------------------------------------------

***  Geometry step: 0

 iSCC Total electronic   Diff electronic      SCC error    
    1   -0.44270271E+03    0.00000000E+00    0.13045381E-03
 
Total Energy:                     -440.5729210772 H       -11988.5992 eV
Extrapolated to 0:                -440.5729210772 H       -11988.5992 eV
Total Mermin free energy:         -440.5729210772 H       -11988.5992 eV
Force related energy:             -440.5729210772 H       -11988.5992 eV
WARNING!
-> SCC is NOT converged, maximal SCC iterations exceeded
 
--------------------------------------------------------------------------------
DFTB+ running times                          cpu [s]             wall clock [s]
--------------------------------------------------------------------------------
Global initialisation                  +     0.01  (  0.0%)      0.04  (  0.2%)
Pre-SCC initialisation                 +     0.09  (  0.0%)      0.09  (  0.4%)
SCC                                    +   416.03  (100.0%)     21.94  ( 99.4%)
--------------------------------------------------------------------------------
Missing                                +     0.00  (  0.0%)      0.00  (  0.0%)
Total                                  =   416.13  (100.0%)     22.07  (100.0%)
--------------------------------------------------------------------------------
